<?xml version="1.0" encoding="UTF-8"?>

<!-- generated on 2022-06-20 00:19:15 by Eclipse SUMO sumo Version 1.12.0
<configuration xmlns:xsi="http://www.w3.org/2001/XMLSchema-instance" xsi:noNamespaceSchemaLocation="http://sumo.dlr.de/xsd/sumoConfiguration.xsd">

    <input>
        <net-file value="sumo/simulation.net.xml"/>
        <route-files value="sumo/simulation.rou.xml"/>
    </input>

    <output>
        <tripinfo-output value="sumo/tripinfo.xml"/>
    </output>

    <time>
        <begin value="0"/>
        <end value="1500"/>
        <step-length value="1"/>
    </time>

    <traci_server>
        <remote-port value="40259"/>
    </traci_server>

    <gui_only>
        <tracker-interval value="1"/>
    </gui_only>

</configuration>
-->

<tripinfos xmlns:xsi="http://www.w3.org/2001/XMLSchema-instance" xsi:noNamespaceSchemaLocation="http://sumo.dlr.de/xsd/tripinfo_file.xsd">
    <tripinfo id="0" depart="3.00" departLane="26586627#0.146_0" departPos="5.10" departSpeed="0.00" departDelay="0.00" arrival="16.00" arrivalLane="37850957#0_0" arrivalPos="83.07" arrivalSpeed="22.75" duration="13.00" routeLength="167.77" waitingTime="0.00" waitingCount="0" stopTime="0.00" timeLoss="5.30" rerouteNo="0" devices="tripinfo_0" vType="DEFAULT_VEHTYPE" speedFactor="1.06" vaporized=""/>
    <tripinfo id="3" depart="10.00" departLane="-37850957#0_0" departPos="5.10" departSpeed="0.00" departDelay="0.00" arrival="22.00" arrivalLane="-26586627#2_0" arrivalPos="45.55" arrivalSpeed="21.90" duration="12.00" routeLength="138.38" waitingTime="0.00" waitingCount="0" stopTime="0.00" timeLoss="5.51" rerouteNo="0" devices="tripinfo_3" vType="DEFAULT_VEHTYPE" speedFactor="1.01" vaporized=""/>
    <tripinfo id="7" depart="14.00" departLane="-37850957#0_0" departPos="5.10" departSpeed="0.00" departDelay="0.00" arrival="26.00" arrivalLane="-26586627#2_0" arrivalPos="45.55" arrivalSpeed="22.44" duration="12.00" routeLength="138.38" waitingTime="0.00" waitingCount="0" stopTime="0.00" timeLoss="5.55" rerouteNo="0" devices="tripinfo_7" vType="DEFAULT_VEHTYPE" speedFactor="1.03" vaporized=""/>
    <tripinfo id="9" depart="15.00" departLane="26586627#0.146_0" departPos="5.10" departSpeed="0.00" departDelay="0.00" arrival="28.00" arrivalLane="37850957#0_0" arrivalPos="83.07" arrivalSpeed="22.85" duration="13.00" routeLength="167.77" waitingTime="0.00" waitingCount="0" stopTime="0.00" timeLoss="5.12" rerouteNo="0" devices="tripinfo_9" vType="DEFAULT_VEHTYPE" speedFactor="1.05" vaporized=""/>
    <tripinfo id="12" depart="18.00" departLane="26586627#0.146_0" departPos="5.10" departSpeed="0.00" departDelay="0.00" arrival="31.00" arrivalLane="37850957#0_0" arrivalPos="83.07" arrivalSpeed="20.04" duration="13.00" routeLength="167.77" waitingTime="0.00" waitingCount="0" stopTime="0.00" timeLoss="4.63" rerouteNo="0" devices="tripinfo_12" vType="DEFAULT_VEHTYPE" speedFactor="0.94" vaporized=""/>
    <tripinfo id="1" depart="4.00" departLane="85640909#2_0" departPos="5.10" departSpeed="0.00" departDelay="0.00" arrival="46.00" arrivalLane="37850958#0_0" arrivalPos="46.22" arrivalSpeed="14.64" duration="42.00" routeLength="106.61" waitingTime="26.00" waitingCount="1" stopTime="0.00" timeLoss="35.56" rerouteNo="0" devices="tripinfo_1" vType="DEFAULT_VEHTYPE" speedFactor="0.94" vaporized=""/>
    <tripinfo id="10" depart="16.00" departLane="-37850958#2_0" departPos="5.10" departSpeed="0.00" departDelay="0.00" arrival="46.00" arrivalLane="-85640909#2_0" arrivalPos="44.62" arrivalSpeed="12.09" duration="30.00" routeLength="106.56" waitingTime="13.00" waitingCount="1" stopTime="0.00" timeLoss="22.53" rerouteNo="0" devices="tripinfo_10" vType="DEFAULT_VEHTYPE" speedFactor="0.89" vaporized=""/>
    <tripinfo id="4" depart="12.00" departLane="85640909#2_0" departPos="5.10" departSpeed="0.00" departDelay="0.00" arrival="48.00" arrivalLane="-26586627#2_0" arrivalPos="45.55" arrivalSpeed="16.91" duration="36.00" routeLength="101.96" waitingTime="20.00" waitingCount="1" stopTime="0.00" timeLoss="29.53" rerouteNo="0" devices="tripinfo_4" vType="DEFAULT_VEHTYPE" speedFactor="1.08" vaporized=""/>
    <tripinfo id="8" depart="15.00" departLane="85640909#2_0" departPos="5.10" departSpeed="0.00" departDelay="0.00" arrival="50.00" arrivalLane="37850958#0_0" arrivalPos="46.22" arrivalSpeed="18.28" duration="35.00" routeLength="106.61" waitingTime="19.00" waitingCount="1" stopTime="0.00" timeLoss="27.14" rerouteNo="0" devices="tripinfo_8" vType="DEFAULT_VEHTYPE" speedFactor="0.83" vaporized=""/>
    <tripinfo id="13" depart="21.00" departLane="-37850957#0_0" departPos="5.10" departSpeed="0.00" departDelay="0.00" arrival="87.00" arrivalLane="37850958#0_0" arrivalPos="46.22" arrivalSpeed="15.90" duration="66.00" routeLength="133.22" waitingTime="48.00" waitingCount="1" stopTime="0.00" timeLoss="57.59" rerouteNo="0" devices="tripinfo_13" vType="DEFAULT_VEHTYPE" speedFactor="0.86" vaporized=""/>
    <tripinfo id="18" depart="38.00" departLane="26586627#0.146_0" departPos="5.10" departSpeed="0.00" departDelay="0.00" arrival="87.00" arrivalLane="-85640909#2_0" arrivalPos="44.62" arrivalSpeed="14.25" duration="49.00" routeLength="123.82" waitingTime="30.00" waitingCount="1" stopTime="0.00" timeLoss="40.61" rerouteNo="0" devices="tripinfo_18" vType="DEFAULT_VEHTYPE" speedFactor="1.03" vaporized=""/>
    <tripinfo id="14" depart="24.00" departLane="-37850957#0_0" departPos="5.10" departSpeed="0.00" departDelay="1.00" arrival="89.00" arrivalLane="37850958#0_0" arrivalPos="46.22" arrivalSpeed="14.34" duration="65.00" routeLength="133.22" waitingTime="46.00" waitingCount="1" stopTime="0.00" timeLoss="58.29" rerouteNo="0" devices="tripinfo_14" vType="DEFAULT_VEHTYPE" speedFactor="1.09" vaporized=""/>
    <tripinfo id="21" depart="46.00" departLane="26586627#0.146_0" departPos="5.10" departSpeed="0.00" departDelay="0.00" arrival="90.00" arrivalLane="37850957#0_0" arrivalPos="83.07" arrivalSpeed="20.07" duration="44.00" routeLength="167.77" waitingTime="23.00" waitingCount="1" stopTime="0.00" timeLoss="35.94" rerouteNo="0" devices="tripinfo_21" vType="DEFAULT_VEHTYPE" speedFactor="1.05" vaporized=""/>
    <tripinfo id="23" depart="48.00" departLane="-37850957#0_0" departPos="5.10" departSpeed="0.00" departDelay="0.00" arrival="91.00" arrivalLane="-26586627#2_0" arrivalPos="45.55" arrivalSpeed="18.99" duration="43.00" routeLength="138.38" waitingTime="23.00" waitingCount="1" stopTime="0.00" timeLoss="36.80" rerouteNo="0" devices="tripinfo_23" vType="DEFAULT_VEHTYPE" speedFactor="1.12" vaporized=""/>
    <tripinfo id="32" depart="57.00" departLane="-37850957#0_0" departPos="5.10" departSpeed="0.00" departDelay="0.00" arrival="91.00" arrivalLane="-85640909#2_0" arrivalPos="44.62" arrivalSpeed="12.99" duration="34.00" routeLength="139.56" waitingTime="10.00" waitingCount="1" stopTime="0.00" timeLoss="24.13" rerouteNo="0" devices="tripinfo_32" vType="DEFAULT_VEHTYPE" speedFactor="0.94" vaporized=""/>
    <tripinfo id="24" depart="51.00" departLane="-37850957#0_0" departPos="5.10" departSpeed="0.00" departDelay="2.00" arrival="95.00" arrivalLane="37850958#0_0" arrivalPos="46.22" arrivalSpeed="14.65" duration="44.00" routeLength="133.22" waitingTime="21.00" waitingCount="1" stopTime="0.00" timeLoss="36.07" rerouteNo="0" devices="tripinfo_24" vType="DEFAULT_VEHTYPE" speedFactor="0.99" vaporized=""/>
    <tripinfo id="25" depart="51.00" departLane="26586627#0.146_0" departPos="5.10" departSpeed="0.00" departDelay="0.00" arrival="96.00" arrivalLane="37850957#0_0" arrivalPos="83.07" arrivalSpeed="19.59" duration="45.00" routeLength="167.77" waitingTime="20.00" waitingCount="1" stopTime="0.00" timeLoss="35.98" rerouteNo="0" devices="tripinfo_25" vType="DEFAULT_VEHTYPE" speedFactor="0.93" vaporized=""/>
    <tripinfo id="27" depart="54.00" departLane="-37850957#0_0" departPos="5.10" departSpeed="0.00" departDelay="1.00" arrival="98.00" arrivalLane="37850958#0_0" arrivalPos="46.22" arrivalSpeed="13.35" duration="44.00" routeLength="133.22" waitingTime="20.00" waitingCount="1" stopTime="0.00" timeLoss="35.51" rerouteNo="0" devices="tripinfo_27" vType="DEFAULT_VEHTYPE" speedFactor="0.88" vaporized=""/>
    <tripinfo id="40" depart="72.00" departLane="-37850957#0_0" departPos="5.10" departSpeed="0.00" departDelay="3.00" arrival="98.00" arrivalLane="-85640909#2_0" arrivalPos="44.62" arrivalSpeed="10.66" duration="26.00" routeLength="139.56" waitingTime="0.00" waitingCount="0" stopTime="0.00" timeLoss="14.63" rerouteNo="0" devices="tripinfo_40" vType="DEFAULT_VEHTYPE" speedFactor="0.83" vaporized=""/>
    <tripinfo id="34" depart="60.00" departLane="-37850957#0_0" departPos="5.10" departSpeed="0.00" departDelay="0.00" arrival="100.00" arrivalLane="37850958#0_0" arrivalPos="46.22" arrivalSpeed="15.61" duration="40.00" routeLength="133.22" waitingTime="16.00" waitingCount="1" stopTime="0.00" timeLoss="33.28" rerouteNo="0" devices="tripinfo_34" vType="DEFAULT_VEHTYPE" speedFactor="1.16" vaporized=""/>
    <tripinfo id="39" depart="69.00" departLane="-37850957#0_0" departPos="5.10" departSpeed="0.00" departDelay="0.00" arrival="101.00" arrivalLane="-26586627#2_0" arrivalPos="45.55" arrivalSpeed="17.76" duration="32.00" routeLength="138.38" waitingTime="9.00" waitingCount="1" stopTime="0.00" timeLoss="24.31" rerouteNo="0" devices="tripinfo_39" vType="DEFAULT_VEHTYPE" speedFactor="0.89" vaporized=""/>
    <tripinfo id="29" depart="54.00" departLane="26586627#0.146_0" departPos="5.10" departSpeed="0.00" departDelay="0.00" arrival="103.00" arrivalLane="37850957#0_0" arrivalPos="83.07" arrivalSpeed="19.49" duration="49.00" routeLength="167.77" waitingTime="18.00" waitingCount="1" stopTime="0.00" timeLoss="40.20" rerouteNo="0" devices="tripinfo_29" vType="DEFAULT_VEHTYPE" speedFactor="0.94" vaporized=""/>
    <tripinfo id="43" depart="79.00" departLane="-37850957#0_0" departPos="5.10" departSpeed="0.00" departDelay="0.00" arrival="103.00" arrivalLane="-85640909#2_0" arrivalPos="44.62" arrivalSpeed="12.44" duration="24.00" routeLength="139.56" waitingTime="0.00" waitingCount="0" stopTime="0.00" timeLoss="14.78" rerouteNo="0" devices="tripinfo_43" vType="DEFAULT_VEHTYPE" speedFactor="0.92" vaporized=""/>
    <tripinfo id="46" depart="82.00" departLane="-37850957#0_0" departPos="5.10" departSpeed="0.00" departDelay="0.00" arrival="103.00" arrivalLane="-26586627#2_0" arrivalPos="45.55" arrivalSpeed="17.06" duration="21.00" routeLength="138.38" waitingTime="0.00" waitingCount="0" stopTime="0.00" timeLoss="13.87" rerouteNo="0" devices="tripinfo_46" vType="DEFAULT_VEHTYPE" speedFactor="0.95" vaporized=""/>
    <tripinfo id="51" depart="89.00" departLane="-37850957#0_0" departPos="5.10" departSpeed="0.00" departDelay="0.00" arrival="106.00" arrivalLane="37850958#0_0" arrivalPos="46.22" arrivalSpeed="15.15" duration="17.00" routeLength="133.22" waitingTime="0.00" waitingCount="0" stopTime="0.00" timeLoss="10.16" rerouteNo="0" devices="tripinfo_51" vType="DEFAULT_VEHTYPE" speedFactor="1.13" vaporized=""/>
    <tripinfo id="35" depart="61.00" departLane="26586627#0.146_0" departPos="5.10" departSpeed="0.00" departDelay="0.00" arrival="109.00" arrivalLane="37850957#0_0" arrivalPos="83.07" arrivalSpeed="19.99" duration="48.00" routeLength="167.77" waitingTime="13.00" waitingCount="2" stopTime="0.00" timeLoss="39.86" rerouteNo="0" devices="tripinfo_35" vType="DEFAULT_VEHTYPE" speedFactor="1.02" vaporized=""/>
    <tripinfo id="36" depart="62.00" departLane="26586627#0.146_0" departPos="5.10" departSpeed="0.00" departDelay="0.00" arrival="110.00" arrivalLane="37850957#0_0" arrivalPos="83.07" arrivalSpeed="18.82" duration="48.00" routeLength="167.77" waitingTime="13.00" waitingCount="2" stopTime="0.00" timeLoss="40.50" rerouteNo="0" devices="tripinfo_36" vType="DEFAULT_VEHTYPE" speedFactor="1.01" vaporized=""/>
    <tripinfo id="54" depart="98.00" departLane="26586627#0.146_0" departPos="5.10" departSpeed="0.00" departDelay="0.00" arrival="112.00" arrivalLane="-85640909#2_0" arrivalPos="44.62" arrivalSpeed="13.24" duration="14.00" routeLength="123.82" waitingTime="0.00" waitingCount="0" stopTime="0.00" timeLoss="7.40" rerouteNo="0" devices="tripinfo_54" vType="DEFAULT_VEHTYPE" speedFactor="1.18" vaporized=""/>
    <tripinfo id="38" depart="67.00" departLane="-37850958#2_0" departPos="5.10" departSpeed="0.00" departDelay="0.00" arrival="127.00" arrivalLane="-85640909#2_0" arrivalPos="44.62" arrivalSpeed="13.09" duration="60.00" routeLength="106.56" waitingTime="41.00" waitingCount="1" stopTime="0.00" timeLoss="52.74" rerouteNo="0" devices="tripinfo_38" vType="DEFAULT_VEHTYPE" speedFactor="0.98" vaporized=""/>
    <tripinfo id="42" depart="77.00" departLane="85640909#2_0" departPos="5.10" departSpeed="0.00" departDelay="0.00" arrival="127.00" arrivalLane="37850958#0_0" arrivalPos="46.22" arrivalSpeed="15.01" duration="50.00" routeLength="106.61" waitingTime="32.00" waitingCount="1" stopTime="0.00" timeLoss="42.57" rerouteNo="0" devices="tripinfo_42" vType="DEFAULT_VEHTYPE" speedFactor="0.87" vaporized=""/>
    <tripinfo id="53" depart="96.00" departLane="85640909#2_0" departPos="5.10" departSpeed="0.00" departDelay="0.00" arrival="129.00" arrivalLane="-26586627#2_0" arrivalPos="45.55" arrivalSpeed="15.70" duration="33.00" routeLength="101.96" waitingTime="16.00" waitingCount="1" stopTime="0.00" timeLoss="25.91" rerouteNo="0" devices="tripinfo_53" vType="DEFAULT_VEHTYPE" speedFactor="0.93" vaporized=""/>
    <tripinfo id="55" depart="99.00" departLane="85640909#2_0" departPos="5.10" departSpeed="0.00" departDelay="1.00" arrival="131.00" arrivalLane="37850958#0_0" arrivalPos="46.22" arrivalSpeed="16.87" duration="32.00" routeLength="106.61" waitingTime="15.00" waitingCount="1" stopTime="0.00" timeLoss="26.36" rerouteNo="0" devices="tripinfo_55" vType="DEFAULT_VEHTYPE" speedFactor="1.15" vaporized=""/>
    <tripinfo id="56" depart="102.00" departLane="85640909#2_0" departPos="5.10" departSpeed="0.00" departDelay="3.00" arrival="132.00" arrivalLane="37850958#0_0" arrivalPos="46.22" arrivalSpeed="17.36" duration="30.00" routeLength="106.61" waitingTime="14.00" waitingCount="1" stopTime="0.00" timeLoss="24.11" rerouteNo="0" devices="tripinfo_56" vType="DEFAULT_VEHTYPE" speedFactor="1.01" vaporized=""/>
    <tripinfo id="57" depart="105.00" departLane="85640909#2_0" departPos="5.10" departSpeed="0.00" departDelay="4.00" arrival="134.00" arrivalLane="37850958#0_0" arrivalPos="46.22" arrivalSpeed="18.95" duration="29.00" routeLength="106.61" waitingTime="12.00" waitingCount="1" stopTime="0.00" timeLoss="23.61" rerouteNo="0" devices="tripinfo_57" vType="DEFAULT_VEHTYPE" speedFactor="1.17" vaporized=""/>
    <tripinfo id="69" depart="126.00" departLane="-37850958#2_0" departPos="5.10" departSpeed="0.00" departDelay="0.00" arrival="139.00" arrivalLane="-26586627#2_0" arrivalPos="45.55" arrivalSpeed="13.81" duration="13.00" routeLength="98.38" waitingTime="0.00" waitingCount="0" stopTime="0.00" timeLoss="7.72" rerouteNo="0" devices="tripinfo_69" vType="DEFAULT_VEHTYPE" speedFactor="1.09" vaporized=""/>
    <tripinfo id="62" depart="109.00" departLane="85640909#2_0" departPos="5.10" departSpeed="0.00" departDelay="0.00" arrival="142.00" arrivalLane="-26586627#2_0" arrivalPos="45.55" arrivalSpeed="13.96" duration="33.00" routeLength="101.96" waitingTime="14.00" waitingCount="2" stopTime="0.00" timeLoss="27.06" rerouteNo="0" devices="tripinfo_62" vType="DEFAULT_VEHTYPE" speedFactor="1.10" vaporized=""/>
    <tripinfo id="68" depart="127.00" departLane="85640909#2_0" departPos="5.10" departSpeed="0.00" departDelay="4.00" arrival="145.00" arrivalLane="-26586627#2_0" arrivalPos="45.55" arrivalSpeed="16.59" duration="18.00" routeLength="101.96" waitingTime="0.00" waitingCount="0" stopTime="0.00" timeLoss="10.32" rerouteNo="0" devices="tripinfo_68" vType="DEFAULT_VEHTYPE" speedFactor="0.96" vaporized=""/>
    <tripinfo id="76" depart="143.00" departLane="85640909#2_0" departPos="5.10" departSpeed="0.00" departDelay="0.00" arrival="154.00" arrivalLane="37850958#0_0" arrivalPos="46.22" arrivalSpeed="18.88" duration="11.00" routeLength="106.61" waitingTime="0.00" waitingCount="0" stopTime="0.00" timeLoss="3.84" rerouteNo="0" devices="tripinfo_76" vType="DEFAULT_VEHTYPE" speedFactor="0.88" vaporized=""/>
    <tripinfo id="59" depart="105.00" departLane="26586627#0.146_0" departPos="5.10" departSpeed="0.00" departDelay="0.00" arrival="167.00" arrivalLane="-85640909#2_0" arrivalPos="44.62" arrivalSpeed="13.96" duration="62.00" routeLength="123.82" waitingTime="44.00" waitingCount="1" stopTime="0.00" timeLoss="53.69" rerouteNo="0" devices="tripinfo_59" vType="DEFAULT_VEHTYPE" speedFactor="1.02" vaporized=""/>
    <tripinfo id="61" depart="107.00" departLane="-37850957#0_0" departPos="5.10" departSpeed="0.00" departDelay="0.00" arrival="167.00" arrivalLane="37850958#0_0" arrivalPos="46.22" arrivalSpeed="14.95" duration="60.00" routeLength="133.22" waitingTime="41.00" waitingCount="1" stopTime="0.00" timeLoss="53.82" rerouteNo="0" devices="tripinfo_61" vType="DEFAULT_VEHTYPE" speedFactor="1.18" vaporized=""/>
    <tripinfo id="58" depart="104.00" departLane="26586627#0.146_0" departPos="5.10" departSpeed="0.00" departDelay="0.00" arrival="169.00" arrivalLane="37850957#0_0" arrivalPos="83.07" arrivalSpeed="18.65" duration="65.00" routeLength="167.77" waitingTime="44.00" waitingCount="1" stopTime="0.00" timeLoss="57.23" rerouteNo="0" devices="tripinfo_58" vType="DEFAULT_VEHTYPE" speedFactor="0.99" vaporized=""/>
    <tripinfo id="64" depart="113.00" departLane="-37850957#0_0" departPos="5.10" departSpeed="0.00" departDelay="0.00" arrival="170.00" arrivalLane="-85640909#2_0" arrivalPos="44.62" arrivalSpeed="11.91" duration="57.00" routeLength="139.56" waitingTime="35.00" waitingCount="1" stopTime="0.00" timeLoss="47.46" rerouteNo="0" devices="tripinfo_64" vType="DEFAULT_VEHTYPE" speedFactor="0.90" vaporized=""/>
    <tripinfo id="72" depart="134.00" departLane="-37850957#0_0" departPos="5.10" departSpeed="0.00" departDelay="0.00" arrival="170.00" arrivalLane="-26586627#2_0" arrivalPos="45.55" arrivalSpeed="17.28" duration="36.00" routeLength="138.38" waitingTime="14.00" waitingCount="1" stopTime="0.00" timeLoss="29.31" rerouteNo="0" devices="tripinfo_72" vType="DEFAULT_VEHTYPE" speedFactor="1.04" vaporized=""/>
    <tripinfo id="82" depart="155.00" departLane="-37850957#0_0" departPos="5.10" departSpeed="0.00" departDelay="0.00" arrival="173.00" arrivalLane="37850958#0_0" arrivalPos="46.22" arrivalSpeed="15.09" duration="18.00" routeLength="133.22" waitingTime="0.00" waitingCount="0" stopTime="0.00" timeLoss="9.19" rerouteNo="0" devices="tripinfo_82" vType="DEFAULT_VEHTYPE" speedFactor="0.85" vaporized=""/>
    <tripinfo id="60" depart="108.00" departLane="26586627#0.146_0" departPos="5.10" departSpeed="0.00" departDelay="1.00" arrival="175.00" arrivalLane="37850957#0_0" arrivalPos="83.07" arrivalSpeed="19.69" duration="67.00" routeLength="167.77" waitingTime="43.00" waitingCount="2" stopTime="0.00" timeLoss="58.90" rerouteNo="0" devices="tripinfo_60" vType="DEFAULT_VEHTYPE" speedFactor="0.97" vaporized=""/>
    <tripinfo id="67" depart="122.00" departLane="-37850957#0_0" departPos="5.10" departSpeed="0.00" departDelay="0.00" arrival="177.00" arrivalLane="-85640909#2_0" arrivalPos="44.62" arrivalSpeed="14.18" duration="55.00" routeLength="139.56" waitingTime="28.00" waitingCount="2" stopTime="0.00" timeLoss="45.93" rerouteNo="0" devices="tripinfo_67" vType="DEFAULT_VEHTYPE" speedFactor="1.03" vaporized=""/>
    <tripinfo id="70" depart="127.00" departLane="26586627#0.146_0" departPos="5.10" departSpeed="0.00" departDelay="0.00" arrival="180.00" arrivalLane="-85640909#2_0" arrivalPos="44.62" arrivalSpeed="13.26" duration="53.00" routeLength="123.82" waitingTime="30.00" waitingCount="2" stopTime="0.00" timeLoss="45.10" rerouteNo="0" devices="tripinfo_70" vType="DEFAULT_VEHTYPE" speedFactor="1.04" vaporized=""/>
    <tripinfo id="86" depart="166.00" departLane="-37850957#0_0" departPos="5.10" departSpeed="0.00" departDelay="0.00" arrival="181.00" arrivalLane="37850958#0_0" arrivalPos="46.22" arrivalSpeed="14.89" duration="15.00" routeLength="133.22" waitingTime="0.00" waitingCount="0" stopTime="0.00" timeLoss="8.42" rerouteNo="0" devices="tripinfo_86" vType="DEFAULT_VEHTYPE" speedFactor="1.02" vaporized=""/>
    <tripinfo id="74" depart="138.00" departLane="26586627#0.146_0" departPos="5.10" departSpeed="0.00" departDelay="2.00" arrival="182.00" arrivalLane="37850957#0_0" arrivalPos="83.07" arrivalSpeed="20.90" duration="44.00" routeLength="167.77" waitingTime="13.00" waitingCount="1" stopTime="0.00" timeLoss="35.50" rerouteNo="0" devices="tripinfo_74" vType="DEFAULT_VEHTYPE" speedFactor="1.00" vaporized=""/>
    <tripinfo id="75" depart="141.00" departLane="-37850957#0_0" departPos="5.10" departSpeed="0.00" departDelay="0.00" arrival="182.00" arrivalLane="-85640909#2_0" arrivalPos="44.62" arrivalSpeed="11.95" duration="41.00" routeLength="139.56" waitingTime="9.00" waitingCount="1" stopTime="0.00" timeLoss="31.50" rerouteNo="0" devices="tripinfo_75" vType="DEFAULT_VEHTYPE" speedFactor="0.90" vaporized=""/>
    <tripinfo id="73" depart="135.00" departLane="26586627#0.146_0" departPos="5.10" departSpeed="0.00" departDelay="0.00" arrival="185.00" arrivalLane="-85640909#2_0" arrivalPos="44.62" arrivalSpeed="14.13" duration="50.00" routeLength="123.82" waitingTime="22.00" waitingCount="2" stopTime="0.00" timeLoss="42.75" rerouteNo="0" devices="tripinfo_73" vType="DEFAULT_VEHTYPE" speedFactor="1.09" vaporized=""/>
    <tripinfo id="89" depart="170.00" departLane="26586627#0.146_0" departPos="5.10" departSpeed="0.00" departDelay="0.00" arrival="187.00" arrivalLane="-85640909#2_0" arrivalPos="44.62" arrivalSpeed="13.90" duration="17.00" routeLength="123.82" waitingTime="0.00" waitingCount="0" stopTime="0.00" timeLoss="9.25" rerouteNo="0" devices="tripinfo_89" vType="DEFAULT_VEHTYPE" speedFactor="1.00" vaporized=""/>
    <tripinfo id="88" depart="168.00" departLane="-37850958#2_0" departPos="5.10" departSpeed="0.00" departDelay="0.00" arrival="206.00" arrivalLane="-85640909#2_0" arrivalPos="44.62" arrivalSpeed="14.53" duration="38.00" routeLength="106.56" waitingTime="22.00" waitingCount="1" stopTime="0.00" timeLoss="32.11" rerouteNo="0" devices="tripinfo_88" vType="DEFAULT_VEHTYPE" speedFactor="1.10" vaporized=""/>
    <tripinfo id="85" depart="161.00" departLane="85640909#2_0" departPos="5.10" departSpeed="0.00" departDelay="0.00" arrival="208.00" arrivalLane="37850958#0_0" arrivalPos="46.22" arrivalSpeed="16.60" duration="47.00" routeLength="106.61" waitingTime="31.00" waitingCount="1" stopTime="0.00" timeLoss="41.81" rerouteNo="0" devices="tripinfo_85" vType="DEFAULT_VEHTYPE" speedFactor="1.17" vaporized=""/>
    <tripinfo id="90" depart="171.00" departLane="-37850958#2_0" departPos="5.10" departSpeed="0.00" departDelay="0.00" arrival="208.00" arrivalLane="-85640909#2_0" arrivalPos="44.62" arrivalSpeed="13.59" duration="37.00" routeLength="106.56" waitingTime="20.00" waitingCount="1" stopTime="0.00" timeLoss="30.63" rerouteNo="0" devices="tripinfo_90" vType="DEFAULT_VEHTYPE" speedFactor="1.00" vaporized=""/>
    <tripinfo id="79" depart="154.00" departLane="85640909#2_0" departPos="5.10" departSpeed="0.00" departDelay="0.00" arrival="209.00" arrivalLane="37850957#0_0" arrivalPos="83.07" arrivalSpeed="18.27" duration="55.00" routeLength="134.53" waitingTime="36.00" waitingCount="1" stopTime="0.00" timeLoss="44.65" rerouteNo="0" devices="tripinfo_79" vType="DEFAULT_VEHTYPE" speedFactor="0.85" vaporized=""/>
    <tripinfo id="97" depart="190.00" departLane="-37850958#2_0" departPos="5.10" departSpeed="0.00" departDelay="0.00" arrival="210.00" arrivalLane="-26586627#2_0" arrivalPos="45.55" arrivalSpeed="14.02" duration="20.00" routeLength="98.38" waitingTime="3.00" waitingCount="1" stopTime="0.00" timeLoss="14.87" rerouteNo="0" devices="tripinfo_97" vType="DEFAULT_VEHTYPE" speedFactor="1.02" vaporized=""/>
    <tripinfo id="91" depart="173.00" departLane="85640909#2_0" departPos="5.10" departSpeed="0.00" departDelay="0.00" arrival="213.00" arrivalLane="37850957#0_0" arrivalPos="83.07" arrivalSpeed="18.81" duration="40.00" routeLength="134.53" waitingTime="19.00" waitingCount="1" stopTime="0.00" timeLoss="30.80" rerouteNo="0" devices="tripinfo_91" vType="DEFAULT_VEHTYPE" speedFactor="0.90" vaporized=""/>
    <tripinfo id="105" depart="213.00" departLane="85640909#2_0" departPos="5.10" departSpeed="0.00" departDelay="0.00" arrival="226.00" arrivalLane="-26586627#2_0" arrivalPos="45.55" arrivalSpeed="14.17" duration="13.00" routeLength="101.96" waitingTime="0.00" waitingCount="0" stopTime="0.00" timeLoss="6.45" rerouteNo="0" devices="tripinfo_105" vType="DEFAULT_VEHTYPE" speedFactor="1.02" vaporized=""/>
    <tripinfo id="108" depart="216.00" departLane="85640909#2_0" departPos="5.10" departSpeed="0.00" departDelay="1.00" arrival="231.00" arrivalLane="37850957#0_0" arrivalPos="83.07" arrivalSpeed="19.03" duration="15.00" routeLength="134.53" waitingTime="0.00" waitingCount="0" stopTime="0.00" timeLoss="6.45" rerouteNo="0" devices="tripinfo_108" vType="DEFAULT_VEHTYPE" speedFactor="0.97" vaporized=""/>
    <tripinfo id="92" depart="182.00" departLane="-37850957#0_0" departPos="5.10" departSpeed="0.00" departDelay="0.00" arrival="246.00" arrivalLane="37850958#0_0" arrivalPos="46.22" arrivalSpeed="13.85" duration="64.00" routeLength="133.22" waitingTime="45.00" waitingCount="1" stopTime="0.00" timeLoss="58.17" rerouteNo="0" devices="tripinfo_92" vType="DEFAULT_VEHTYPE" speedFactor="1.14" vaporized=""/>
    <tripinfo id="96" depart="190.00" departLane="-37850957#0_0" departPos="5.10" departSpeed="0.00" departDelay="2.00" arrival="247.00" arrivalLane="-85640909#2_0" arrivalPos="44.62" arrivalSpeed="14.43" duration="57.00" routeLength="139.56" waitingTime="37.00" waitingCount="1" stopTime="0.00" timeLoss="48.90" rerouteNo="0" devices="tripinfo_96" vType="DEFAULT_VEHTYPE" speedFactor="1.12" vaporized=""/>
    <tripinfo id="95" depart="187.00" departLane="-37850957#0_0" departPos="5.10" departSpeed="0.00" departDelay="0.00" arrival="249.00" arrivalLane="37850958#0_0" arrivalPos="46.22" arrivalSpeed="14.41" duration="62.00" routeLength="133.22" waitingTime="41.00" waitingCount="1" stopTime="0.00" timeLoss="55.12" rerouteNo="0" devices="tripinfo_95" vType="DEFAULT_VEHTYPE" speedFactor="1.08" vaporized=""/>
    <tripinfo id="93" depart="184.00" departLane="26586627#0.146_0" departPos="5.10" departSpeed="0.00" departDelay="0.00" arrival="250.00" arrivalLane="-85640909#2_0" arrivalPos="44.62" arrivalSpeed="13.82" duration="66.00" routeLength="123.82" waitingTime="48.00" waitingCount="2" stopTime="0.00" timeLoss="58.63" rerouteNo="0" devices="tripinfo_93" vType="DEFAULT_VEHTYPE" speedFactor="1.02" vaporized=""/>
    <tripinfo id="98" depart="193.00" departLane="-37850957#0_0" departPos="5.10" departSpeed="0.00" departDelay="0.00" arrival="250.00" arrivalLane="-26586627#2_0" arrivalPos="45.55" arrivalSpeed="16.94" duration="57.00" routeLength="138.38" waitingTime="39.00" waitingCount="1" stopTime="0.00" timeLoss="50.68" rerouteNo="0" devices="tripinfo_98" vType="DEFAULT_VEHTYPE" speedFactor="0.99" vaporized=""/>
    <tripinfo id="94" depart="187.00" departLane="26586627#0.146_0" departPos="5.10" departSpeed="0.00" departDelay="3.00" arrival="253.00" arrivalLane="37850957#0_0" arrivalPos="83.07" arrivalSpeed="17.83" duration="66.00" routeLength="167.77" waitingTime="41.00" waitingCount="1" stopTime="0.00" timeLoss="57.75" rerouteNo="0" devices="tripinfo_94" vType="DEFAULT_VEHTYPE" speedFactor="0.97" vaporized=""/>
    <tripinfo id="99" depart="196.00" departLane="-37850957#0_0" departPos="5.10" departSpeed="0.00" departDelay="2.00" arrival="254.00" arrivalLane="-85640909#2_0" arrivalPos="44.62" arrivalSpeed="12.00" duration="58.00" routeLength="139.56" waitingTime="34.00" waitingCount="1" stopTime="0.00" timeLoss="48.02" rerouteNo="0" devices="tripinfo_99" vType="DEFAULT_VEHTYPE" speedFactor="0.94" vaporized=""/>
    <tripinfo id="100" depart="201.00" departLane="-37850957#0_0" departPos="5.10" departSpeed="0.00" departDelay="0.00" arrival="255.00" arrivalLane="37850958#0_0" arrivalPos="46.22" arrivalSpeed="14.41" duration="54.00" routeLength="133.22" waitingTime="31.00" waitingCount="1" stopTime="0.00" timeLoss="45.38" rerouteNo="0" devices="tripinfo_100" vType="DEFAULT_VEHTYPE" speedFactor="0.88" vaporized=""/>
    <tripinfo id="102" depart="204.00" departLane="-37850957#0_0" departPos="5.10" departSpeed="0.00" departDelay="1.00" arrival="256.00" arrivalLane="-26586627#2_0" arrivalPos="45.55" arrivalSpeed="16.21" duration="52.00" routeLength="138.38" waitingTime="29.00" waitingCount="1" stopTime="0.00" timeLoss="44.76" rerouteNo="0" devices="tripinfo_102" vType="DEFAULT_VEHTYPE" speedFactor="0.91" vaporized=""/>
    <tripinfo id="117" depart="238.00" departLane="-37850957#0_0" departPos="5.10" departSpeed="0.00" departDelay="0.00" arrival="258.00" arrivalLane="-26586627#2_0" arrivalPos="45.55" arrivalSpeed="18.30" duration="20.00" routeLength="138.38" waitingTime="0.00" waitingCount="0" stopTime="0.00" timeLoss="12.99" rerouteNo="0" devices="tripinfo_117" vType="DEFAULT_VEHTYPE" speedFactor="0.98" vaporized=""/>
    <tripinfo id="107" depart="215.00" departLane="26586627#0.146_0" departPos="5.10" departSpeed="0.00" departDelay="0.00" arrival="259.00" arrivalLane="37850957#0_0" arrivalPos="83.07" arrivalSpeed="18.76" duration="44.00" routeLength="167.77" waitingTime="15.00" waitingCount="1" stopTime="0.00" timeLoss="35.95" rerouteNo="0" devices="tripinfo_107" vType="DEFAULT_VEHTYPE" speedFactor="1.02" vaporized=""/>