<?xml version="1.0" encoding="UTF-8"?>

<!-- generated on 2022-06-20 00:10:15 by Eclipse SUMO sumo Version 1.12.0
<configuration xmlns:xsi="http://www.w3.org/2001/XMLSchema-instance" xsi:noNamespaceSchemaLocation="http://sumo.dlr.de/xsd/sumoConfiguration.xsd">

    <input>
        <net-file value="sumo/simulation.net.xml"/>
        <route-files value="sumo/simulation.rou.xml"/>
    </input>

    <output>
        <tripinfo-output value="sumo/tripinfo.xml"/>
    </output>

    <time>
        <begin value="0"/>
        <end value="1500"/>
        <step-length value="1"/>
    </time>

    <traci_server>
        <remote-port value="59353"/>
    </traci_server>

    <gui_only>
        <tracker-interval value="1"/>
    </gui_only>

</configuration>
-->

<tripinfos xmlns:xsi="http://www.w3.org/2001/XMLSchema-instance" xsi:noNamespaceSchemaLocation="http://sumo.dlr.de/xsd/tripinfo_file.xsd">
    <tripinfo id="0" depart="0.00" departLane="-37850957#0_0" departPos="5.10" departSpeed="0.00" departDelay="0.00" arrival="13.00" arrivalLane="-26586627#2_0" arrivalPos="45.55" arrivalSpeed="22.59" duration="13.00" routeLength="138.38" waitingTime="0.00" waitingCount="0" stopTime="0.00" timeLoss="6.18" rerouteNo="0" devices="tripinfo_0" vType="DEFAULT_VEHTYPE" speedFactor="1.06" vaporized=""/>
    <tripinfo id="1" depart="3.00" departLane="-37850957#0_0" departPos="5.10" departSpeed="0.00" departDelay="1.00" arrival="15.00" arrivalLane="-26586627#2_0" arrivalPos="45.55" arrivalSpeed="19.96" duration="12.00" routeLength="138.38" waitingTime="0.00" waitingCount="0" stopTime="0.00" timeLoss="4.57" rerouteNo="0" devices="tripinfo_1" vType="DEFAULT_VEHTYPE" speedFactor="0.94" vaporized=""/>
    <tripinfo id="2" depart="3.00" departLane="26586627#0.146_0" departPos="5.10" departSpeed="0.00" departDelay="0.00" arrival="17.00" arrivalLane="-85640909#2_0" arrivalPos="44.62" arrivalSpeed="13.82" duration="14.00" routeLength="123.82" waitingTime="0.00" waitingCount="0" stopTime="0.00" timeLoss="6.29" rerouteNo="0" devices="tripinfo_2" vType="DEFAULT_VEHTYPE" speedFactor="1.01" vaporized=""/>
    <tripinfo id="4" depart="6.00" departLane="-37850957#0_0" departPos="5.10" departSpeed="0.00" departDelay="2.00" arrival="22.00" arrivalLane="-85640909#2_0" arrivalPos="44.62" arrivalSpeed="13.26" duration="16.00" routeLength="139.56" waitingTime="0.00" waitingCount="0" stopTime="0.00" timeLoss="6.85" rerouteNo="0" devices="tripinfo_4" vType="DEFAULT_VEHTYPE" speedFactor="1.03" vaporized=""/>
    <tripinfo id="5" depart="8.00" departLane="-37850957#0_0" departPos="5.10" departSpeed="0.00" departDelay="3.00" arrival="25.00" arrivalLane="37850958#0_0" arrivalPos="46.22" arrivalSpeed="13.62" duration="17.00" routeLength="133.22" waitingTime="0.00" waitingCount="0" stopTime="0.00" timeLoss="8.30" rerouteNo="0" devices="tripinfo_5" vType="DEFAULT_VEHTYPE" speedFactor="0.83" vaporized=""/>
    <tripinfo id="8" depart="14.00" departLane="-37850957#0_0" departPos="5.10" departSpeed="0.00" departDelay="0.00" arrival="26.00" arrivalLane="-26586627#2_0" arrivalPos="45.55" arrivalSpeed="19.62" duration="12.00" routeLength="138.38" waitingTime="0.00" waitingCount="0" stopTime="0.00" timeLoss="4.24" rerouteNo="0" devices="tripinfo_8" vType="DEFAULT_VEHTYPE" speedFactor="0.89" vaporized=""/>
    <tripinfo id="11" depart="23.00" departLane="-37850957#0_0" departPos="5.10" departSpeed="0.00" departDelay="0.00" arrival="35.00" arrivalLane="-26586627#2_0" arrivalPos="45.55" arrivalSpeed="20.50" duration="12.00" routeLength="138.38" waitingTime="0.00" waitingCount="0" stopTime="0.00" timeLoss="4.65" rerouteNo="0" devices="tripinfo_11" vType="DEFAULT_VEHTYPE" speedFactor="0.94" vaporized=""/>
    <tripinfo id="14" depart="26.00" departLane="26586627#0.146_0" departPos="5.10" departSpeed="0.00" departDelay="0.00" arrival="41.00" arrivalLane="-85640909#2_0" arrivalPos="44.62" arrivalSpeed="13.40" duration="15.00" routeLength="123.82" waitingTime="0.00" waitingCount="0" stopTime="0.00" timeLoss="7.41" rerouteNo="0" devices="tripinfo_14" vType="DEFAULT_VEHTYPE" speedFactor="1.03" vaporized=""/>
    <tripinfo id="7" depart="8.00" departLane="-37850958#2_0" departPos="5.10" departSpeed="0.00" departDelay="0.00" arrival="54.00" arrivalLane="-85640909#2_0" arrivalPos="44.62" arrivalSpeed="14.42" duration="46.00" routeLength="106.56" waitingTime="29.00" waitingCount="1" stopTime="0.00" timeLoss="39.73" rerouteNo="0" devices="tripinfo_7" vType="DEFAULT_VEHTYPE" speedFactor="1.05" vaporized=""/>
    <tripinfo id="3" depart="4.00" departLane="85640909#2_0" departPos="5.10" departSpeed="0.00" departDelay="0.00" arrival="57.00" arrivalLane="-26586627#2_0" arrivalPos="45.55" arrivalSpeed="14.27" duration="53.00" routeLength="101.96" waitingTime="36.00" waitingCount="2" stopTime="0.00" timeLoss="46.84" rerouteNo="0" devices="tripinfo_3" vType="DEFAULT_VEHTYPE" speedFactor="1.08" vaporized=""/>
    <tripinfo id="12" depart="25.00" departLane="85640909#2_0" departPos="5.10" departSpeed="0.00" departDelay="0.00" arrival="60.00" arrivalLane="37850958#0_0" arrivalPos="46.22" arrivalSpeed="17.94" duration="35.00" routeLength="106.61" waitingTime="14.00" waitingCount="1" stopTime="0.00" timeLoss="27.06" rerouteNo="0" devices="tripinfo_12" vType="DEFAULT_VEHTYPE" speedFactor="0.86" vaporized=""/>
    <tripinfo id="25" depart="49.00" departLane="-37850958#2_0" departPos="5.10" departSpeed="0.00" departDelay="0.00" arrival="62.00" arrivalLane="-26586627#2_0" arrivalPos="45.55" arrivalSpeed="14.70" duration="13.00" routeLength="98.38" waitingTime="0.00" waitingCount="0" stopTime="0.00" timeLoss="7.77" rerouteNo="0" devices="tripinfo_25" vType="DEFAULT_VEHTYPE" speedFactor="1.16" vaporized=""/>
    <tripinfo id="13" depart="28.00" departLane="85640909#2_0" departPos="5.10" departSpeed="0.00" departDelay="3.00" arrival="63.00" arrivalLane="37850957#0_0" arrivalPos="83.07" arrivalSpeed="19.76" duration="35.00" routeLength="134.53" waitingTime="13.00" waitingCount="2" stopTime="0.00" timeLoss="27.80" rerouteNo="0" devices="tripinfo_13" vType="DEFAULT_VEHTYPE" speedFactor="1.09" vaporized=""/>
    <tripinfo id="20" depart="37.00" departLane="85640909#2_0" departPos="5.10" departSpeed="0.00" departDelay="0.00" arrival="67.00" arrivalLane="37850957#0_0" arrivalPos="83.07" arrivalSpeed="19.22" duration="30.00" routeLength="134.53" waitingTime="6.00" waitingCount="1" stopTime="0.00" timeLoss="20.46" rerouteNo="0" devices="tripinfo_20" vType="DEFAULT_VEHTYPE" speedFactor="0.93" vaporized=""/>
    <tripinfo id="24" depart="46.00" departLane="85640909#2_0" departPos="5.10" departSpeed="0.00" departDelay="0.00" arrival="67.00" arrivalLane="-26586627#2_0" arrivalPos="45.55" arrivalSpeed="14.22" duration="21.00" routeLength="101.96" waitingTime="0.00" waitingCount="0" stopTime="0.00" timeLoss="13.48" rerouteNo="0" devices="tripinfo_24" vType="DEFAULT_VEHTYPE" speedFactor="0.94" vaporized=""/>
    <tripinfo id="27" depart="51.00" departLane="85640909#2_0" departPos="5.10" departSpeed="0.00" departDelay="0.00" arrival="69.00" arrivalLane="37850958#0_0" arrivalPos="46.22" arrivalSpeed="19.02" duration="18.00" routeLength="106.61" waitingTime="0.00" waitingCount="0" stopTime="0.00" timeLoss="11.36" rerouteNo="0" devices="tripinfo_27" vType="DEFAULT_VEHTYPE" speedFactor="1.02" vaporized=""/>
    <tripinfo id="29" depart="55.00" departLane="85640909#2_0" departPos="5.10" departSpeed="0.00" departDelay="3.00" arrival="71.00" arrivalLane="-26586627#2_0" arrivalPos="45.55" arrivalSpeed="16.42" duration="16.00" routeLength="101.96" waitingTime="0.00" waitingCount="0" stopTime="0.00" timeLoss="9.16" rerouteNo="0" devices="tripinfo_29" vType="DEFAULT_VEHTYPE" speedFactor="1.01" vaporized=""/>
    <tripinfo id="32" depart="60.00" departLane="85640909#2_0" departPos="5.10" departSpeed="0.00" departDelay="0.00" arrival="74.00" arrivalLane="-26586627#2_0" arrivalPos="45.55" arrivalSpeed="15.52" duration="14.00" routeLength="101.96" waitingTime="0.00" waitingCount="0" stopTime="0.00" timeLoss="6.37" rerouteNo="0" devices="tripinfo_32" vType="DEFAULT_VEHTYPE" speedFactor="0.89" vaporized=""/>
    <tripinfo id="15" depart="33.00" departLane="-37850957#0_0" departPos="5.10" departSpeed="0.00" departDelay="0.00" arrival="87.00" arrivalLane="37850958#0_0" arrivalPos="46.22" arrivalSpeed="15.57" duration="54.00" routeLength="133.22" waitingTime="34.00" waitingCount="1" stopTime="0.00" timeLoss="46.99" rerouteNo="0" devices="tripinfo_15" vType="DEFAULT_VEHTYPE" speedFactor="1.05" vaporized=""/>
    <tripinfo id="23" depart="45.00" departLane="-37850957#0_0" departPos="5.10" departSpeed="0.00" departDelay="0.00" arrival="87.00" arrivalLane="-85640909#2_0" arrivalPos="44.62" arrivalSpeed="12.61" duration="42.00" routeLength="139.56" waitingTime="23.00" waitingCount="1" stopTime="0.00" timeLoss="32.60" rerouteNo="0" devices="tripinfo_23" vType="DEFAULT_VEHTYPE" speedFactor="0.94" vaporized=""/>
    <tripinfo id="16" depart="36.00" departLane="-37850957#0_0" departPos="5.10" departSpeed="0.00" departDelay="3.00" arrival="89.00" arrivalLane="-26586627#2_0" arrivalPos="45.55" arrivalSpeed="17.17" duration="53.00" routeLength="138.38" waitingTime="33.00" waitingCount="1" stopTime="0.00" timeLoss="46.90" rerouteNo="0" devices="tripinfo_16" vType="DEFAULT_VEHTYPE" speedFactor="1.12" vaporized=""/>
    <tripinfo id="18" depart="39.00" departLane="-37850957#0_0" departPos="5.10" departSpeed="0.00" departDelay="3.00" arrival="91.00" arrivalLane="-26586627#2_0" arrivalPos="45.55" arrivalSpeed="18.52" duration="52.00" routeLength="138.38" waitingTime="33.00" waitingCount="1" stopTime="0.00" timeLoss="45.03" rerouteNo="0" devices="tripinfo_18" vType="DEFAULT_VEHTYPE" speedFactor="0.99" vaporized=""/>
    <tripinfo id="40" depart="77.00" departLane="26586627#0.146_0" departPos="5.10" departSpeed="0.00" departDelay="0.00" arrival="92.00" arrivalLane="-85640909#2_0" arrivalPos="44.62" arrivalSpeed="15.61" duration="15.00" routeLength="123.82" waitingTime="0.00" waitingCount="0" stopTime="0.00" timeLoss="7.04" rerouteNo="0" devices="tripinfo_40" vType="DEFAULT_VEHTYPE" speedFactor="1.13" vaporized=""/>
    <tripinfo id="22" depart="42.00" departLane="-37850957#0_0" departPos="5.10" departSpeed="0.00" departDelay="0.00" arrival="93.00" arrivalLane="-26586627#2_0" arrivalPos="45.55" arrivalSpeed="16.66" duration="51.00" routeLength="138.38" waitingTime="30.00" waitingCount="1" stopTime="0.00" timeLoss="43.30" rerouteNo="0" devices="tripinfo_22" vType="DEFAULT_VEHTYPE" speedFactor="0.88" vaporized=""/>
    <tripinfo id="30" depart="57.00" departLane="-37850957#0_0" departPos="5.10" departSpeed="0.00" departDelay="0.00" arrival="95.00" arrivalLane="-26586627#2_0" arrivalPos="45.55" arrivalSpeed="17.69" duration="38.00" routeLength="138.38" waitingTime="16.00" waitingCount="1" stopTime="0.00" timeLoss="30.80" rerouteNo="0" devices="tripinfo_30" vType="DEFAULT_VEHTYPE" speedFactor="0.98" vaporized=""/>
    <tripinfo id="43" depart="83.00" departLane="26586627#0.146_0" departPos="5.10" departSpeed="0.00" departDelay="0.00" arrival="97.00" arrivalLane="-85640909#2_0" arrivalPos="44.62" arrivalSpeed="12.40" duration="14.00" routeLength="123.82" waitingTime="0.00" waitingCount="0" stopTime="0.00" timeLoss="7.38" rerouteNo="0" devices="tripinfo_43" vType="DEFAULT_VEHTYPE" speedFactor="1.15" vaporized=""/>
    <tripinfo id="34" depart="65.00" departLane="-37850957#0_0" departPos="5.10" departSpeed="0.00" departDelay="0.00" arrival="100.00" arrivalLane="37850958#0_0" arrivalPos="46.22" arrivalSpeed="14.40" duration="35.00" routeLength="133.22" waitingTime="11.00" waitingCount="1" stopTime="0.00" timeLoss="26.35" rerouteNo="0" devices="tripinfo_34" vType="DEFAULT_VEHTYPE" speedFactor="0.83" vaporized=""/>
    <tripinfo id="37" depart="68.00" departLane="-37850957#0_0" departPos="5.10" departSpeed="0.00" departDelay="0.00" arrival="102.00" arrivalLane="37850958#0_0" arrivalPos="46.22" arrivalSpeed="14.83" duration="34.00" routeLength="133.22" waitingTime="10.00" waitingCount="1" stopTime="0.00" timeLoss="25.99" rerouteNo="0" devices="tripinfo_37" vType="DEFAULT_VEHTYPE" speedFactor="0.95" vaporized=""/>
    <tripinfo id="41" depart="79.00" departLane="-37850957#0_0" departPos="5.10" departSpeed="0.00" departDelay="0.00" arrival="104.00" arrivalLane="37850958#0_0" arrivalPos="46.22" arrivalSpeed="13.95" duration="25.00" routeLength="133.22" waitingTime="0.00" waitingCount="0" stopTime="0.00" timeLoss="17.24" rerouteNo="0" devices="tripinfo_41" vType="DEFAULT_VEHTYPE" speedFactor="0.93" vaporized=""/>
    <tripinfo id="45" depart="86.00" departLane="-37850957#0_0" departPos="5.10" departSpeed="0.00" departDelay="0.00" arrival="107.00" arrivalLane="37850958#0_0" arrivalPos="46.22" arrivalSpeed="13.92" duration="21.00" routeLength="133.22" waitingTime="0.00" waitingCount="0" stopTime="0.00" timeLoss="13.90" rerouteNo="0" devices="tripinfo_45" vType="DEFAULT_VEHTYPE" speedFactor="1.01" vaporized=""/>
    <tripinfo id="48" depart="105.00" departLane="26586627#0.146_0" departPos="5.10" departSpeed="0.00" departDelay="0.00" arrival="118.00" arrivalLane="37850957#0_0" arrivalPos="83.07" arrivalSpeed="26.00" duration="13.00" routeLength="167.77" waitingTime="0.00" waitingCount="0" stopTime="0.00" timeLoss="5.80" rerouteNo="0" devices="tripinfo_48" vType="DEFAULT_VEHTYPE" speedFactor="1.17" vaporized=""/>
    <tripinfo id="36" depart="67.00" departLane="-37850958#2_0" departPos="5.10" departSpeed="0.00" departDelay="0.00" arrival="134.00" arrivalLane="-26586627#2_0" arrivalPos="45.55" arrivalSpeed="14.70" duration="67.00" routeLength="98.38" waitingTime="51.00" waitingCount="1" stopTime="0.00" timeLoss="60.64" rerouteNo="0" devices="tripinfo_36" vType="DEFAULT_VEHTYPE" speedFactor="0.92" vaporized=""/>
    <tripinfo id="35" depart="67.00" departLane="85640909#2_0" departPos="5.10" departSpeed="0.00" departDelay="0.00" arrival="137.00" arrivalLane="37850957#0_0" arrivalPos="83.07" arrivalSpeed="18.94" duration="70.00" routeLength="134.53" waitingTime="51.00" waitingCount="1" stopTime="0.00" timeLoss="59.83" rerouteNo="0" devices="tripinfo_35" vType="DEFAULT_VEHTYPE" speedFactor="0.87" vaporized=""/>
    <tripinfo id="49" depart="108.00" departLane="-37850958#2_0" departPos="5.10" departSpeed="0.00" departDelay="0.00" arrival="137.00" arrivalLane="-26586627#2_0" arrivalPos="45.55" arrivalSpeed="15.14" duration="29.00" routeLength="98.38" waitingTime="12.00" waitingCount="1" stopTime="0.00" timeLoss="22.73" rerouteNo="0" devices="tripinfo_49" vType="DEFAULT_VEHTYPE" speedFactor="0.99" vaporized=""/>
    <tripinfo id="60" depart="127.00" departLane="-37850958#2_0" departPos="5.10" departSpeed="0.00" departDelay="0.00" arrival="139.00" arrivalLane="-26586627#2_0" arrivalPos="45.55" arrivalSpeed="15.85" duration="12.00" routeLength="98.38" waitingTime="0.00" waitingCount="0" stopTime="0.00" timeLoss="7.04" rerouteNo="0" devices="tripinfo_60" vType="DEFAULT_VEHTYPE" speedFactor="1.09" vaporized=""/>
    <tripinfo id="63" depart="131.00" departLane="-37850958#2_0" departPos="5.10" departSpeed="0.00" departDelay="0.00" arrival="143.00" arrivalLane="-85640909#2_0" arrivalPos="44.62" arrivalSpeed="14.26" duration="12.00" routeLength="106.56" waitingTime="0.00" waitingCount="0" stopTime="0.00" timeLoss="4.93" rerouteNo="0" devices="tripinfo_63" vType="DEFAULT_VEHTYPE" speedFactor="1.04" vaporized=""/>
    <tripinfo id="42" depart="82.00" departLane="85640909#2_0" departPos="5.10" departSpeed="0.00" departDelay="0.00" arrival="146.00" arrivalLane="-26586627#2_0" arrivalPos="45.55" arrivalSpeed="14.22" duration="64.00" routeLength="101.96" waitingTime="44.00" waitingCount="2" stopTime="0.00" timeLoss="58.36" rerouteNo="0" devices="tripinfo_42" vType="DEFAULT_VEHTYPE" speedFactor="1.18" vaporized=""/>
    <tripinfo id="51" depart="110.00" departLane="85640909#2_0" departPos="5.10" departSpeed="0.00" departDelay="0.00" arrival="149.00" arrivalLane="-26586627#2_0" arrivalPos="45.55" arrivalSpeed="15.22" duration="39.00" routeLength="101.96" waitingTime="17.00" waitingCount="2" stopTime="0.00" timeLoss="31.61" rerouteNo="0" devices="tripinfo_51" vType="DEFAULT_VEHTYPE" speedFactor="0.97" vaporized=""/>
    <tripinfo id="62" depart="129.00" departLane="85640909#2_0" departPos="5.10" departSpeed="0.00" departDelay="0.00" arrival="151.00" arrivalLane="-26586627#2_0" arrivalPos="45.55" arrivalSpeed="17.18" duration="22.00" routeLength="101.96" waitingTime="5.00" waitingCount="1" stopTime="0.00" timeLoss="15.33" rerouteNo="0" devices="tripinfo_62" vType="DEFAULT_VEHTYPE" speedFactor="1.04" vaporized=""/>
    <tripinfo id="67" depart="138.00" departLane="85640909#2_0" departPos="5.10" departSpeed="0.00" departDelay="0.00" arrival="154.00" arrivalLane="-26586627#2_0" arrivalPos="45.55" arrivalSpeed="15.53" duration="16.00" routeLength="101.96" waitingTime="0.00" waitingCount="0" stopTime="0.00" timeLoss="8.87" rerouteNo="0" devices="tripinfo_67" vType="DEFAULT_VEHTYPE" speedFactor="1.00" vaporized=""/>
    <tripinfo id="56" depart="115.00" departLane="-37850957#0_0" departPos="5.10" departSpeed="0.00" departDelay="0.00" arrival="168.00" arrivalLane="-26586627#2_0" arrivalPos="45.55" arrivalSpeed="16.09" duration="53.00" routeLength="138.38" waitingTime="33.00" waitingCount="1" stopTime="0.00" timeLoss="46.70" rerouteNo="0" devices="tripinfo_56" vType="DEFAULT_VEHTYPE" speedFactor="1.10" vaporized=""/>
    <tripinfo id="55" depart="115.00" departLane="26586627#0.146_0" departPos="5.10" departSpeed="0.00" departDelay="0.00" arrival="169.00" arrivalLane="37850957#0_0" arrivalPos="83.07" arrivalSpeed="18.13" duration="54.00" routeLength="167.77" waitingTime="34.00" waitingCount="1" stopTime="0.00" timeLoss="47.54" rerouteNo="0" devices="tripinfo_55" vType="DEFAULT_VEHTYPE" speedFactor="1.18" vaporized=""/>
    <tripinfo id="57" depart="118.00" departLane="-37850957#0_0" departPos="5.10" departSpeed="0.00" departDelay="2.00" arrival="170.00" arrivalLane="37850958#0_0" arrivalPos="46.22" arrivalSpeed="14.20" duration="52.00" routeLength="133.22" waitingTime="30.00" waitingCount="1" stopTime="0.00" timeLoss="44.45" rerouteNo="0" devices="tripinfo_57" vType="DEFAULT_VEHTYPE" speedFactor="0.90" vaporized=""/>
    <tripinfo id="58" depart="121.00" departLane="-37850957#0_0" departPos="5.10" departSpeed="0.00" departDelay="5.00" arrival="171.00" arrivalLane="-85640909#2_0" arrivalPos="44.62" arrivalSpeed="14.11" duration="50.00" routeLength="139.56" waitingTime="26.00" waitingCount="1" stopTime="0.00" timeLoss="41.12" rerouteNo="0" devices="tripinfo_58" vType="DEFAULT_VEHTYPE" speedFactor="1.03" vaporized=""/>
    <tripinfo id="70" depart="144.00" departLane="-37850957#0_0" departPos="5.10" departSpeed="0.00" departDelay="0.00" arrival="173.00" arrivalLane="37850958#0_0" arrivalPos="46.22" arrivalSpeed="14.10" duration="29.00" routeLength="133.22" waitingTime="6.00" waitingCount="1" stopTime="0.00" timeLoss="20.55" rerouteNo="0" devices="tripinfo_70" vType="DEFAULT_VEHTYPE" speedFactor="0.88" vaporized=""/>
    <tripinfo id="71" depart="147.00" departLane="-37850957#0_0" departPos="5.10" departSpeed="0.00" departDelay="1.00" arrival="174.00" arrivalLane="-26586627#2_0" arrivalPos="45.55" arrivalSpeed="17.71" duration="27.00" routeLength="138.38" waitingTime="5.00" waitingCount="1" stopTime="0.00" timeLoss="18.94" rerouteNo="0" devices="tripinfo_71" vType="DEFAULT_VEHTYPE" speedFactor="0.85" vaporized=""/>
    <tripinfo id="50" depart="109.00" departLane="26586627#0.146_0" departPos="5.10" departSpeed="0.00" departDelay="0.00" arrival="175.00" arrivalLane="-85640909#2_0" arrivalPos="44.62" arrivalSpeed="13.11" duration="66.00" routeLength="123.82" waitingTime="47.00" waitingCount="2" stopTime="0.00" timeLoss="57.73" rerouteNo="0" devices="tripinfo_50" vType="DEFAULT_VEHTYPE" speedFactor="1.02" vaporized=""/>
    <tripinfo id="59" depart="118.00" departLane="26586627#0.146_0" departPos="5.10" departSpeed="0.00" departDelay="0.00" arrival="175.00" arrivalLane="37850957#0_0" arrivalPos="83.07" arrivalSpeed="18.48" duration="57.00" routeLength="167.77" waitingTime="31.00" waitingCount="1" stopTime="0.00" timeLoss="48.87" rerouteNo="0" devices="tripinfo_59" vType="DEFAULT_VEHTYPE" speedFactor="0.96" vaporized=""/>
    <tripinfo id="68" depart="140.00" departLane="-37850957#0_0" departPos="5.10" departSpeed="0.00" departDelay="0.00" arrival="177.00" arrivalLane="-85640909#2_0" arrivalPos="44.62" arrivalSpeed="12.38" duration="37.00" routeLength="139.56" waitingTime="9.00" waitingCount="1" stopTime="0.00" timeLoss="26.91" rerouteNo="0" devices="tripinfo_68" vType="DEFAULT_VEHTYPE" speedFactor="0.90" vaporized=""/>
    <tripinfo id="80" depart="161.00" departLane="-37850957#0_0" departPos="5.10" departSpeed="0.00" departDelay="0.00" arrival="178.00" arrivalLane="37850958#0_0" arrivalPos="46.22" arrivalSpeed="15.02" duration="17.00" routeLength="133.22" waitingTime="0.00" waitingCount="0" stopTime="0.00" timeLoss="9.26" rerouteNo="0" devices="tripinfo_80" vType="DEFAULT_VEHTYPE" speedFactor="0.90" vaporized=""/>
    <tripinfo id="83" depart="164.00" departLane="-37850957#0_0" departPos="5.10" departSpeed="0.00" departDelay="0.00" arrival="180.00" arrivalLane="37850958#0_0" arrivalPos="46.22" arrivalSpeed="15.03" duration="16.00" routeLength="133.22" waitingTime="0.00" waitingCount="0" stopTime="0.00" timeLoss="9.35" rerouteNo="0" devices="tripinfo_83" vType="DEFAULT_VEHTYPE" speedFactor="1.02" vaporized=""/>
    <tripinfo id="66" depart="137.00" departLane="26586627#0.146_0" departPos="5.10" departSpeed="0.00" departDelay="0.00" arrival="181.00" arrivalLane="-85640909#2_0" arrivalPos="44.62" arrivalSpeed="14.60" duration="44.00" routeLength="123.82" waitingTime="21.00" waitingCount="3" stopTime="0.00" timeLoss="36.22" rerouteNo="0" devices="tripinfo_66" vType="DEFAULT_VEHTYPE" speedFactor="1.09" vaporized=""/>
    <tripinfo id="79" depart="160.00" departLane="26586627#0.146_0" departPos="5.10" departSpeed="0.00" departDelay="0.00" arrival="182.00" arrivalLane="37850957#0_0" arrivalPos="83.07" arrivalSpeed="18.61" duration="22.00" routeLength="167.77" waitingTime="1.00" waitingCount="1" stopTime="0.00" timeLoss="14.06" rerouteNo="0" devices="tripinfo_79" vType="DEFAULT_VEHTYPE" speedFactor="1.00" vaporized=""/>
    <tripinfo id="75" depart="154.00" departLane="26586627#0.146_0" departPos="5.10" departSpeed="0.00" departDelay="0.00" arrival="183.00" arrivalLane="-85640909#2_0" arrivalPos="44.62" arrivalSpeed="13.51" duration="29.00" routeLength="123.82" waitingTime="5.00" waitingCount="2" stopTime="0.00" timeLoss="21.04" rerouteNo="0" devices="tripinfo_75" vType="DEFAULT_VEHTYPE" speedFactor="1.02" vaporized=""/>
    <tripinfo id="82" depart="164.00" departLane="26586627#0.146_0" departPos="5.10" departSpeed="0.00" departDelay="0.00" arrival="185.00" arrivalLane="-85640909#2_0" arrivalPos="44.62" arrivalSpeed="14.45" duration="21.00" routeLength="123.82" waitingTime="0.00" waitingCount="0" stopTime="0.00" timeLoss="14.24" rerouteNo="0" devices="tripinfo_82" vType="DEFAULT_VEHTYPE" speedFactor="1.14" vaporized=""/>
    <tripinfo id="88" depart="175.00" departLane="26586627#0.146_0" departPos="5.10" departSpeed="0.00" departDelay="0.00" arrival="189.00" arrivalLane="-85640909#2_0" arrivalPos="44.62" arrivalSpeed="14.67" duration="14.00" routeLength="123.82" waitingTime="0.00" waitingCount="0" stopTime="0.00" timeLoss="6.94" rerouteNo="0" devices="tripinfo_88" vType="DEFAULT_VEHTYPE" speedFactor="1.12" vaporized=""/>
    <tripinfo id="91" depart="182.00" departLane="-37850957#0_0" departPos="5.10" departSpeed="0.00" departDelay="0.00" arrival="197.00" arrivalLane="-85640909#2_0" arrivalPos="44.62" arrivalSpeed="12.73" duration="15.00" routeLength="139.56" waitingTime="0.00" waitingCount="0" stopTime="0.00" timeLoss="5.89" rerouteNo="0" devices="tripinfo_91" vType="DEFAULT_VEHTYPE" speedFactor="0.99" vaporized=""/>
    <tripinfo id="93" depart="184.00" departLane="-37850957#0_0" departPos="5.10" departSpeed="0.00" departDelay="1.00" arrival="200.00" arrivalLane="37850958#0_0" arrivalPos="46.22" arrivalSpeed="14.52" duration="16.00" routeLength="133.22" waitingTime="0.00" waitingCount="0" stopTime="0.00" timeLoss="8.75" rerouteNo="0" devices="tripinfo_93" vType="DEFAULT_VEHTYPE" speedFactor="0.94" vaporized=""/>
    <tripinfo id="95" depart="187.00" departLane="-37850957#0_0" departPos="5.10" departSpeed="0.00" departDelay="2.00" arrival="203.00" arrivalLane="-85640909#2_0" arrivalPos="44.62" arrivalSpeed="12.32" duration="16.00" routeLength="139.56" waitingTime="0.00" waitingCount="0" stopTime="0.00" timeLoss="5.36" rerouteNo="0" devices="tripinfo_95" vType="DEFAULT_VEHTYPE" speedFactor="0.91" vaporized=""/>
    <tripinfo id="73" depart="150.00" departLane="-37850958#2_0" departPos="5.10" departSpeed="0.00" departDelay="0.00" arrival="214.00" arrivalLane="-26586627#2_0" arrivalPos="45.55" arrivalSpeed="15.42" duration="64.00" routeLength="98.38" waitingTime="48.00" waitingCount="1" stopTime="0.00" timeLoss="58.87" rerouteNo="0" devices="tripinfo_73" vType="DEFAULT_VEHTYPE" speedFactor="1.17" vaporized=""/>
    <tripinfo id="77" depart="156.00" departLane="-37850958#2_0" departPos="5.10" departSpeed="0.00" departDelay="0.00" arrival="216.00" arrivalLane="-85640909#2_0" arrivalPos="44.62" arrivalSpeed="14.79" duration="60.00" routeLength="106.56" waitingTime="43.00" waitingCount="1" stopTime="0.00" timeLoss="54.05" rerouteNo="0" devices="tripinfo_77" vType="DEFAULT_VEHTYPE" speedFactor="1.10" vaporized=""/>
    <tripinfo id="72" depart="149.00" departLane="85640909#2_0" departPos="5.10" departSpeed="0.00" departDelay="0.00" arrival="217.00" arrivalLane="37850957#0_0" arrivalPos="83.07" arrivalSpeed="17.82" duration="68.00" routeLength="134.53" waitingTime="50.00" waitingCount="1" stopTime="0.00" timeLoss="58.09" rerouteNo="0" devices="tripinfo_72" vType="DEFAULT_VEHTYPE" speedFactor="0.85" vaporized=""/>
    <tripinfo id="78" depart="159.00" departLane="85640909#2_0" departPos="5.10" departSpeed="0.00" departDelay="0.00" arrival="217.00" arrivalLane="37850958#0_0" arrivalPos="46.22" arrivalSpeed="17.13" duration="58.00" routeLength="106.61" waitingTime="41.00" waitingCount="1" stopTime="0.00" timeLoss="51.58" rerouteNo="0" devices="tripinfo_78" vType="DEFAULT_VEHTYPE" speedFactor="1.00" vaporized=""/>
    <tripinfo id="90" depart="180.00" departLane="-37850958#2_0" departPos="5.10" departSpeed="0.00" departDelay="0.00" arrival="218.00" arrivalLane="-26586627#2_0" arrivalPos="45.55" arrivalSpeed="15.59" duration="38.00" routeLength="98.38" waitingTime="22.00" waitingCount="1" stopTime="0.00" timeLoss="32.84" rerouteNo="0" devices="tripinfo_90" vType="DEFAULT_VEHTYPE" speedFactor="1.02" vaporized=""/>
    <tripinfo id="94" depart="185.00" departLane="-37850958#2_0" departPos="5.10" departSpeed="0.00" departDelay="0.00" arrival="222.00" arrivalLane="-26586627#2_0" arrivalPos="45.55" arrivalSpeed="14.86" duration="37.00" routeLength="98.38" waitingTime="18.00" waitingCount="1" stopTime="0.00" timeLoss="30.21" rerouteNo="0" devices="tripinfo_94" vType="DEFAULT_VEHTYPE" speedFactor="0.88" vaporized=""/>
    <tripinfo id="100" depart="193.00" departLane="-37850958#2_0" departPos="5.10" departSpeed="0.00" departDelay="0.00" arrival="223.00" arrivalLane="-85640909#2_0" arrivalPos="44.62" arrivalSpeed="12.49" duration="30.00" routeLength="106.56" waitingTime="12.00" waitingCount="1" stopTime="0.00" timeLoss="23.08" rerouteNo="0" devices="tripinfo_100" vType="DEFAULT_VEHTYPE" speedFactor="0.91" vaporized=""/>
    <tripinfo id="105" depart="204.00" departLane="-37850958#2_0" departPos="5.10" departSpeed="0.00" departDelay="0.00" arrival="226.00" arrivalLane="-26586627#2_0" arrivalPos="45.55" arrivalSpeed="14.75" duration="22.00" routeLength="98.38" waitingTime="4.00" waitingCount="1" stopTime="0.00" timeLoss="15.81" rerouteNo="0" devices="tripinfo_105" vType="DEFAULT_VEHTYPE" speedFactor="0.97" vaporized=""/>
    <tripinfo id="84" depart="168.00" departLane="85640909#2_0" departPos="5.10" departSpeed="0.00" departDelay="0.00" arrival="228.00" arrivalLane="-26586627#2_0" arrivalPos="45.55" arrivalSpeed="14.48" duration="60.00" routeLength="101.96" waitingTime="41.00" waitingCount="2" stopTime="0.00" timeLoss="52.99" rerouteNo="0" devices="tripinfo_84" vType="DEFAULT_VEHTYPE" speedFactor="0.97" vaporized=""/>
    <tripinfo id="87" depart="174.00" departLane="85640909#2_0" departPos="5.10" departSpeed="0.00" departDelay="0.00" arrival="232.00" arrivalLane="37850957#0_0" arrivalPos="83.07" arrivalSpeed="19.31" duration="58.00" routeLength="134.53" waitingTime="32.00" waitingCount="2" stopTime="0.00" timeLoss="50.88" rerouteNo="0" devices="tripinfo_87" vType="DEFAULT_VEHTYPE" speedFactor="1.08" vaporized=""/>
    <tripinfo id="101" depart="195.00" departLane="85640909#2_0" departPos="5.10" departSpeed="0.00" departDelay="0.00" arrival="235.00" arrivalLane="37850957#0_0" arrivalPos="83.07" arrivalSpeed="19.10" duration="40.00" routeLength="134.53" waitingTime="13.00" waitingCount="2" stopTime="0.00" timeLoss="32.33" rerouteNo="0" devices="tripinfo_101" vType="DEFAULT_VEHTYPE" speedFactor="1.04" vaporized=""/>
    <tripinfo id="107" depart="207.00" departLane="-37850957#0_0" departPos="5.10" departSpeed="0.00" departDelay="0.00" arrival="246.00" arrivalLane="37850958#0_0" arrivalPos="46.22" arrivalSpeed="13.75" duration="39.00" routeLength="133.22" waitingTime="21.00" waitingCount="1" stopTime="0.00" timeLoss="31.86" rerouteNo="0" devices="tripinfo_107" vType="DEFAULT_VEHTYPE" speedFactor="0.94" vaporized=""/>